file 21455702 1595946480                                        
version 2
run exponential-9-20200728-16:27:54-16048
attr configname exponential
attr datetime 20200728-16:27:54
attr experiment exponential
attr inifile consegna.ini
attr iterationvars "$lamb=0.7, $expo=0.25"
attr iterationvarsf lamb=0.7,expo=0.25-
attr measurement "$lamb=0.7, $expo=0.25"
attr network Network
attr processid 16048
attr repetition 9
attr replication #9
attr resultdir results
attr runnumber 9
attr seedset 9
itervar expo 0.25
itervar lamb 0.7
param **.source.interArrivalTime exponential(0.7s)
param **.queue.serviceTime 0s
param **.SPTF.serviceTime exponential(0.25s)

vector 0 Network.SPTF serviceTime:vector ETV
vector 1 Network.queue serviceTime:vector ETV
vector 2 Network.sink lifeTime:vector ETV
attr interpolationmode none
attr title "lifetime of arrived jobs, vector"
attr unit s
vector 3 Network.SPTF queueLength:vector ETV
attr interpolationmode sample-hold
attr title "queue length, vector"
0	951 1405718 29900 173963 3500.25805084561 20131.705465528556 32768 1.535581e-006 3.136897105017 8230.062218308 4184.0549807652
1	1406669 991243 29902 226506 3500.357566428187 26283.067433154295 32768 0 0 0 0
2	2397912 1413490 29904 226508 3500.357566428187 26283.067433154295 32768 1.535581e-006 5.470617661286 11925.577223977 9054.6999816075
3	3811402 996720 29926 301445 3506.240332202475 35019.171161176293 32768 0 8 31540 58212
0	4808122 1434664 173968 318864 20131.878882659965 37092.943126557845 32768 1.9555163e-005 2.693603074543 8205.8334045192 4076.7961776902
1	6242786 1012159 226510 423112 26283.959921448781 49368.750442455284 32768 0 0 0 0
2	7254945 1434543 226512 423114 26283.959921448781 49368.750442455284 32768 4.750663e-006 5.437706157713 11820.165377844 8807.740033709
0	8689488 1434376 318866 463938 37093.182444638297 54090.861890907941 32768 4.750663e-006 2.81886741244 8170.3617375191 4090.5113013012
3	10123864 1012117 301462 578057 35020.857655913935 67405.641856746375 32768 0 8 30880 55968
0	11135981 1434637 463940 608576 54090.932174544936 70971.225228278052 32768 1.0007029e-005 2.652110127758 8222.7569457185 4123.4429347596
1	12570618 1012187 423118 619722 49370.000280746297 72211.621098584345 32768 0 0 0 0
2	13582805 1434563 423120 619724 49370.000280746297 72211.621098584345 32768 1.0007029e-005 6.749095385004 11853.208274518 8815.5975525727
0	15017368 1434555 608578 753686 70971.391803232928 87982.655999158444 32768 6.077012e-006 2.971929284213 8213.3893525564 4127.5346252983
1	16451923 1012156 619726 816328 72211.650645054202 95265.450582486756 32768 0 0 0 0
2	17464079 1434370 619728 816330 72211.650645054202 95265.450582486756 32768 6.077012e-006 5.370746740301 11766.249495407 8647.5806134856
3	18898449 1012148 578074 854313 67407.311330950595 99672.069390641145 32768 0 9 30800 55948
0	19910597 1024110 753692 857282 87983.410663736974 99999.276498593855 23393 8.660111e-006 2.588612278434 5811.760148471 2899.5520374184
1	20934707 210850 816338 857284 95267.104202517787 99999.717749912289 6826 0 0 0 0
2	21145557 298838 816340 857286 95267.104202517787 99999.717749912289 6826 5.2453923e-005 4.491855718482 2503.6307598887 1981.9296153093
3	21444395 11305 854317 857261 99672.162145878358 99996.674568131065 366 0 5 339 599

