file 21562718 1595946485                                        
version 2
run exponential-6-20200728-16:28:00-360
attr configname exponential
attr datetime 20200728-16:28:00
attr experiment exponential
attr inifile consegna.ini
attr iterationvars "$lamb=0.7, $expo=0.25"
attr iterationvarsf lamb=0.7,expo=0.25-
attr measurement "$lamb=0.7, $expo=0.25"
attr network Network
attr processid 360
attr repetition 6
attr replication #6
attr resultdir results
attr runnumber 6
attr seedset 6
itervar expo 0.25
itervar lamb 0.7
param **.source.interArrivalTime exponential(0.7s)
param **.queue.serviceTime 0s
param **.SPTF.serviceTime exponential(0.25s)

vector 0 Network.SPTF serviceTime:vector ETV
vector 1 Network.SPTF queueLength:vector ETV
attr interpolationmode sample-hold
attr title "queue length, vector"
vector 2 Network.queue serviceTime:vector ETV
vector 3 Network.sink lifeTime:vector ETV
attr interpolationmode none
attr title "lifetime of arrived jobs, vector"
attr unit s
0	947 1405847 29624 174601 3500.083396459854 20204.542924536218 32768 1.2758222e-005 2.80203543483 8182.3014024839 4070.1500604331
2	1406794 991087 29628 226230 3500.408491923705 26205.97892435296 32768 0 0 0 0
3	2397881 1413405 29630 226232 3500.408491923705 26205.97892435296 32768 1.2758222e-005 5.735402434337 11791.981598732 8822.9984476924
1	3811286 997019 29626 302490 3500.145960913437 34958.36946385266 32768 0 7 31630 58796
0	4808305 1434627 174605 318794 20204.693482353275 36855.73059516054 32768 1.670856e-006 3.074764729998 8100.7065433409 4031.330669366
2	6242932 1012189 226234 422838 26206.142313215306 48995.04888434261 32768 0 0 0 0
3	7255121 1434591 226236 422840 26206.142313215306 48995.04888434261 32768 4.675923e-006 7.183924679806 11692.059927577 8643.3948567076
0	8689712 1434391 318800 464080 36855.792995215357 53726.457138282535 32768 5.054921e-006 3.805565346155 8071.5875400163 3953.376369494
1	10124103 1012042 302492 578291 34958.470719670401 67049.363744235229 32768 0 7 31366 57904
0	11136145 1434473 464081 608804 53726.603874656231 70626.215390955347 32768 6.088363e-006 2.863245248777 8185.9118517417 4096.3740341886
2	12570618 1012105 422842 619444 48995.492230930665 71843.805011370614 32768 0 0 0 0
3	13582723 1434504 422844 619446 48995.492230930665 71843.805011370614 32768 1.3216399e-005 5.793127409465 11937.013271096 9013.4299133474
0	15017227 1434478 608810 753633 70627.566024132124 87308.185579949293 32768 6.09842e-007 2.351883787586 8247.934709113 4150.7585082441
2	16451705 1012115 619450 816054 71844.681081112534 94744.372949509929 32768 0 0 0 0
3	17463820 1434498 619452 816056 71844.681081112534 94744.372949509929 32768 6.09842e-007 6.393859770166 11936.490427571 9085.0358653544
1	18898318 1012166 578296 854111 67049.479592285931 99173.892427728245 32768 0 7 30872 56252
0	19910484 1064870 753637 861167 87308.568622821626 99999.343806114634 24323 3.0399577e-005 2.648638109685 6191.7784891071 3184.5336575508
1	20975354 25900 854146 861167 99178.140604290625 99999.343806114634 838 0 5 793 1411
2	21001254 232266 816060 861172 94744.75010914867 99999.773145480924 7520 0 0 0 0
3	21233520 329196 816062 861174 94744.75010914867 99999.773145480924 7520 4.0025511e-005 4.076503085513 2776.9215605358 2052.5985430955

