file 21485513 1595946474                                        
version 2
run exponential-8-20200728-16:27:49-16048
attr configname exponential
attr datetime 20200728-16:27:49
attr experiment exponential
attr inifile consegna.ini
attr iterationvars "$lamb=0.7, $expo=0.25"
attr iterationvarsf lamb=0.7,expo=0.25-
attr measurement "$lamb=0.7, $expo=0.25"
attr network Network
attr processid 16048
attr repetition 8
attr replication #8
attr resultdir results
attr runnumber 8
attr seedset 8
itervar expo 0.25
itervar lamb 0.7
param **.source.interArrivalTime exponential(0.7s)
param **.queue.serviceTime 0s
param **.SPTF.serviceTime exponential(0.25s)

vector 0 Network.SPTF serviceTime:vector ETV
vector 1 Network.SPTF queueLength:vector ETV
attr interpolationmode sample-hold
attr title "queue length, vector"
vector 2 Network.queue serviceTime:vector ETV
vector 3 Network.sink lifeTime:vector ETV
attr interpolationmode none
attr title "lifetime of arrived jobs, vector"
attr unit s
0	951 1405991 29534 174818 3500.037889655055 20325.298654248018 32768 1.792802e-006 3.2037049263 8134.8641504956 4041.9145580386
2	1406942 991037 29538 226138 3500.104186539429 26168.283220567324 32768 0 0 0 0
3	2397979 1413453 29540 226140 3500.104186539429 26168.283220567324 32768 3.067039e-006 4.830220973121 11764.111691433 8663.8853135559
1	3811432 997251 29536 307445 3500.100837047961 35667.965444390234 32768 0 9 30494 54904
0	4808683 1434589 174820 320114 20325.755189509166 37173.33118372813 32768 1.2773357e-005 2.428550412476 8158.5012853783 4091.598197564
2	6243272 1012074 226148 422752 26169.34835930311 49205.004153645587 32768 0 0 0 0
3	7255346 1434419 226150 422754 26169.34835930311 49205.004153645587 32768 8.9635e-006 6.477057356308 11658.870751194 8529.1060395249
0	8689765 1434422 320120 465299 37173.548998165597 54183.189028163096 32768 8.9635e-006 2.387348885279 8227.2524505717 4167.1888269345
1	10124187 1012084 307450 584357 35668.249211792243 68001.049262074459 32768 0 8 30828 55660
0	11136271 1434510 465303 609896 54183.210133931076 70935.998609455182 32768 7.660711e-006 2.719413463758 8179.9266909882 4073.7302495266
2	12570781 1012209 422756 619354 49205.325442416332 72075.55808972477 32768 0 0 0 0
3	13582990 1434447 422758 619356 49205.325442416332 72075.55808972477 32768 7.660711e-006 5.209295816654 11885.173365164 8873.6271819307
0	15017437 1434544 609902 755108 70936.16306865556 88006.44060260812 32768 2.3122782e-005 2.625571705942 8067.8606950736 3943.8354223781
2	16451981 1012177 619360 815962 72076.250754541383 95070.918225049766 32768 0 0 0 0
3	17464158 1434525 619362 815964 72076.250754541383 95070.918225049766 32768 2.3122782e-005 5.129066745442 11626.95776569 8418.2190122091
1	18898683 1012176 584362 856848 68001.066084952631 99770.185435090058 32768 0 8 30474 54268
0	19910859 1034636 755114 858779 88006.545870106362 99999.242524253833 23637 2.2662084e-005 2.56347535021 5940.2663213431 2985.2155166014
1	20945495 7170 856850 858779 99770.566862153053 99999.242524253833 232 0 4 196 324
2	20952665 220425 815970 858784 95071.879817795478 99999.293822484851 7137 0 0 0 0
3	21173090 312421 815972 858786 95071.879817795478 99999.293822484851 7137 9.9068169e-005 6.724046317322 2673.4447605796 2130.9276880213

