file 21329399 1595946480                                        
version 2
run exponential-13-20200728-16:27:54-4596
attr configname exponential
attr datetime 20200728-16:27:54
attr experiment exponential
attr inifile consegna.ini
attr iterationvars "$lamb=0.7, $expo=0.25"
attr iterationvarsf lamb=0.7,expo=0.25-
attr measurement "$lamb=0.7, $expo=0.25"
attr network Network
attr processid 4596
attr repetition 13
attr replication #13
attr resultdir results
attr runnumber 13
attr seedset 13
itervar expo 0.25
itervar lamb 0.7
param **.source.interArrivalTime exponential(0.7s)
param **.queue.serviceTime 0s
param **.SPTF.serviceTime exponential(0.25s)

vector 0 Network.queue serviceTime:vector ETV
vector 1 Network.sink lifeTime:vector ETV
attr interpolationmode none
attr title "lifetime of arrived jobs, vector"
attr unit s
vector 2 Network.SPTF serviceTime:vector ETV
vector 3 Network.SPTF queueLength:vector ETV
attr interpolationmode sample-hold
attr title "queue length, vector"
2	954 1405995 29426 174589 3501.729479708134 20497.173882349081 32768 9.301757e-006 2.485135024955 8193.0409498304 4032.8886545995
0	1406949 991128 29422 226026 3500.250050121186 26538.260407820053 32768 0 0 0 0
1	2398077 1413606 29424 226028 3500.250050121186 26538.260407820053 32768 1.3597388e-005 7.082734629414 11717.573407649 8542.2187258514
3	3811683 997113 29452 305993 3506.966161240555 35789.552885974313 32768 0 7 30608 54984
2	4808796 1434636 174593 319754 20497.312763776592 37430.063668727276 32768 1.2236248e-005 3.512147751241 8168.2849636428 4075.3435974859
0	6243432 1012039 226030 422632 26538.601408249868 49459.557074087693 32768 0 0 0 0
1	7255471 1434312 226032 422634 26538.601408249868 49459.557074087693 32768 1.6419523e-005 6.088265344051 11806.965153347 8968.3827226636
2	8689783 1434457 319755 464967 37430.567494814124 54438.407814530039 32768 7.722122e-006 2.561286871583 8195.2822474275 4062.5003757528
3	10124240 1012206 306040 585036 35795.417601101932 68600.018539421915 32768 0 8 31206 57812
2	11136446 1434605 464971 610237 54438.876951412865 71654.984471713407 32768 6.016765e-006 2.610291700706 8245.1393310713 4136.2166553684
0	12571051 1012215 422638 619240 49462.75690649442 72707.269826878299 32768 0 0 0 0
1	13583266 1434431 422640 619242 49462.75690649442 72707.269826878299 32768 1.8421832e-005 4.874666684486 11834.266047252 8920.1755348762
2	15017697 1434548 610241 755300 71655.172315088932 88725.289135436557 32768 1.8335969e-005 2.528637208994 8235.1185411035 4106.7259638511
0	16452245 1012150 619246 815850 72708.480762095154 95642.890623998584 32768 0 0 0 0
1	17464395 1434444 619248 815852 72708.480762095154 95642.890623998584 32768 2.7721189e-005 8.071092723135 11968.789066547 8980.5410315104
0	18898839 191684 815854 853078 95643.088786207804 99999.375259726622 6205 0 0 0 0
1	19090523 271632 815856 853080 95643.088786207804 99999.375259726622 6205 6.4462119e-005 5.010923959684 2262.642633796 1712.9653999533
2	19362155 974840 755306 853076 88726.101110296539 99999.175010927726 22268 5.699061e-006 2.531311232244 5666.9041534748 2837.1891477929
3	20336995 992402 585037 853013 68600.491675575874 99986.701140921234 32128 0 6 30444 55432

