file 21573598 1595946474                                        
version 2
run exponential-4-20200728-16:27:49-360
attr configname exponential
attr datetime 20200728-16:27:49
attr experiment exponential
attr inifile consegna.ini
attr iterationvars "$lamb=0.7, $expo=0.25"
attr iterationvarsf lamb=0.7,expo=0.25-
attr measurement "$lamb=0.7, $expo=0.25"
attr network Network
attr processid 360
attr repetition 4
attr replication #4
attr resultdir results
attr runnumber 4
attr seedset 4
itervar expo 0.25
itervar lamb 0.7
param **.source.interArrivalTime exponential(0.7s)
param **.queue.serviceTime 0s
param **.SPTF.serviceTime exponential(0.25s)

vector 0 Network.SPTF queueLength:vector ETV
attr interpolationmode sample-hold
attr title "queue length, vector"
vector 1 Network.SPTF serviceTime:vector ETV
vector 2 Network.queue serviceTime:vector ETV
vector 3 Network.sink lifeTime:vector ETV
attr interpolationmode none
attr title "lifetime of arrived jobs, vector"
attr unit s
1	947 1406033 29567 174644 3500.02404362141 20404.728688320335 32768 1.3438706e-005 2.28784085291 8181.4629973117 4118.4134793518
2	1406980 991027 29568 226170 3500.02404362141 26272.822903359244 32768 0 0 0 0
3	2398007 1413360 29570 226172 3500.02404362141 26272.822903359244 32768 1.6390825e-005 6.705816922888 11938.700302168 9014.6157612959
0	3811367 997319 29567 302758 3500.02404362141 35377.385188850636 32768 0 6 30936 55844
1	4808686 1434493 174650 318806 20406.866553441429 37207.981952287614 32768 2.0839444e-005 3.177771702003 8308.9860437358 4219.2735068523
2	6243179 1012157 226174 422776 26273.003010257036 49222.290549331425 32768 0 0 0 0
3	7255336 1434441 226176 422778 26273.003010257036 49222.290549331425 32768 2.38244e-007 6.358058973957 11998.52735928 9111.3736399879
1	8689777 1434496 318812 463220 37208.178032499958 53941.461111808144 32768 2.38244e-007 2.630229309285 8269.6492339658 4160.0213135254
0	10124273 1012221 302759 575588 35378.367847605014 66979.422956545343 32768 0 8 31218 57476
1	11136494 1434543 463222 607880 53941.793594273976 70664.803039833852 32768 1.3233513e-005 3.194627536167 8074.4021250429 3985.0656536167
2	12571037 1012207 422782 619384 49223.612630307176 71992.396434457319 32768 0 0 0 0
3	13583244 1434503 422784 619386 49223.612630307176 71992.396434457319 32768 1.1934602e-005 6.802088055792 11765.401919462 8822.3027208045
1	15017747 1434625 607882 752504 70665.126777635032 87511.574231536557 32768 3.426592e-006 2.526385850559 8186.5734462766 4102.4615345507
2	16452372 1012163 619392 815992 71993.002607203335 94810.563153736728 32768 0 0 0 0
3	17464535 1434493 619394 815994 71993.002607203335 94810.563153736728 32768 3.426592e-006 5.753455593966 11966.794403162 9118.2308760474
0	18899028 1012141 575589 848932 66979.52064817415 98687.666929394374 32768 0 8 31456 58356
0	19911169 42800 848933 860165 98687.707614459844 99998.729850026863 1385 0 6 1414 2832
1	19953969 1069746 752510 860180 87513.26211834454 99999.912611158822 24440 1.111303e-006 2.255049353826 6070.6143481833 3030.9491051225
2	21023715 227503 815998 860182 94811.014229551158 99999.917631667792 7365 0 0 0 0
3	21251218 322378 816000 860184 94811.014229551158 99999.917631667792 7365 1.590471e-006 7.695071688647 2658.7257083457 2055.4081893107

