file 21424108 1595946485                                        
version 2
run exponential-2-20200728-16:28:00-12868
attr configname exponential
attr datetime 20200728-16:28:00
attr experiment exponential
attr inifile consegna.ini
attr iterationvars "$lamb=0.7, $expo=0.25"
attr iterationvarsf lamb=0.7,expo=0.25-
attr measurement "$lamb=0.7, $expo=0.25"
attr network Network
attr processid 12868
attr repetition 2
attr replication #2
attr resultdir results
attr runnumber 2
attr seedset 2
itervar expo 0.25
itervar lamb 0.7
param **.source.interArrivalTime exponential(0.7s)
param **.queue.serviceTime 0s
param **.SPTF.serviceTime exponential(0.25s)

vector 0 Network.SPTF serviceTime:vector ETV
vector 1 Network.SPTF queueLength:vector ETV
attr interpolationmode sample-hold
attr title "queue length, vector"
vector 2 Network.queue serviceTime:vector ETV
vector 3 Network.sink lifeTime:vector ETV
attr interpolationmode none
attr title "lifetime of arrived jobs, vector"
attr unit s
0	951 1405638 30028 174852 3500.079341229168 20266.430204054893 32768 1.0769464e-005 2.442812872342 8240.8465663396 4098.3972809607
2	1406589 990906 30030 226630 3500.190333349751 26291.965561498455 32768 0 0 0 0
3	2397495 1413197 30032 226632 3500.190333349751 26291.965561498455 32768 1.0769464e-005 7.611621689316 11977.097469702 9061.3262265329
1	3810692 996901 30028 303833 3500.079341229168 35343.033645751395 32768 0 9 31224 57712
0	4807593 1434636 174853 319364 20266.679221511388 37176.074781993521 32768 4.999273e-006 2.811557188162 8278.8112104243 4230.5413135913
2	6242229 1012261 226636 423238 26292.712505206201 49248.892955311974 32768 0 0 0 0
3	7254490 1434600 226638 423240 26292.712505206201 49248.892955311974 32768 4.999273e-006 6.04083334591 11876.695839286 9025.1435155485
0	8689090 1434544 319370 464825 37177.540128565438 54168.994142251239 32768 5.072209e-006 2.291266960453 8130.1668585614 4058.8970206547
1	10123634 1012167 303838 581567 35343.128105580191 67830.329688077181 32768 0 8 30822 56484
0	11135801 1434534 464834 610040 54169.042437390748 71177.806191865908 32768 4.588203e-006 2.455466136138 8139.0807619715 4018.6710896558
2	12570335 1012222 423244 619846 49249.788457934439 72325.024750044064 32768 0 0 0 0
3	13582557 1434563 423246 619848 49249.788457934439 72325.024750044064 32768 7.409421e-006 5.994568021924 11674.00078011 8524.8654430536
0	15017120 1434466 610046 755562 71179.21187408006 88143.124213518566 32768 1.57004e-006 2.926137299573 8200.734911041 4152.9157572519
2	16451586 1012038 619854 816456 72325.174722659829 95271.797848036089 32768 0 0 0 0
3	17463624 1434476 619856 816458 72325.174722659829 95271.797848036089 32768 1.57004e-006 5.777281163567 11738.545048166 8795.8511197557
0	18898100 1010802 755564 857759 88143.12933625693 99999.854802157915 23090 4.84013e-006 2.643995068118 5724.9566319354 2841.0418902699
1	19908902 1001088 581572 857759 67830.501700554754 99999.854802157915 32412 0 8 30220 54666
2	20909990 212672 816460 857764 95271.812356574908 99999.928613867568 6885 0 0 0 0
3	21122662 301444 816462 857766 95271.812356574908 99999.928613867568 6885 0.000141771014 3.750506504585 2462.145308587 1804.0600118459

