file 21441592 1595946490                                        
version 2
run exponential-15-20200728-16:28:06-3496
attr configname exponential
attr datetime 20200728-16:28:06
attr experiment exponential
attr inifile consegna.ini
attr iterationvars "$lamb=0.7, $expo=0.25"
attr iterationvarsf lamb=0.7,expo=0.25-
attr measurement "$lamb=0.7, $expo=0.25"
attr network Network
attr processid 3496
attr repetition 15
attr replication #15
attr resultdir results
attr runnumber 15
attr seedset 15
itervar expo 0.25
itervar lamb 0.7
param **.source.interArrivalTime exponential(0.7s)
param **.queue.serviceTime 0s
param **.SPTF.serviceTime exponential(0.25s)

vector 0 Network.SPTF serviceTime:vector ETV
vector 1 Network.SPTF queueLength:vector ETV
attr interpolationmode sample-hold
attr title "queue length, vector"
vector 2 Network.queue serviceTime:vector ETV
vector 3 Network.sink lifeTime:vector ETV
attr interpolationmode none
attr title "lifetime of arrived jobs, vector"
attr unit s
0	954 1405544 30350 174890 3500.524812505589 20411.59275482546 32768 7.45176e-007 2.382709079504 8175.7706138515 4009.231684031
2	1406498 991049 30354 226956 3500.889695284992 26426.058192465677 32768 0 0 0 0
3	2397547 1413396 30356 226958 3500.889695284992 26426.058192465677 32768 7.45176e-007 6.60357075914 11830.249729252 8735.1244665573
1	3810943 996644 30352 305987 3500.842477793705 35712.541300034988 32768 0 8 30740 55972
0	4807587 1434540 174892 320114 20411.930170872622 37338.531172349969 32768 1.5505954e-005 2.781769376064 8145.491837259 4056.0884236173
2	6242127 1012218 226960 423564 26426.37580413937 49372.60355981365 32768 0 0 0 0
3	7254345 1434617 226962 423566 26426.37580413937 49372.60355981365 32768 8.686131e-006 6.309240767079 11700.461451688 8624.8226449848
0	8688962 1434635 320120 465274 37340.376742716342 54236.823488147644 32768 8.686131e-006 2.563404294386 8045.2577308478 3974.4318585771
1	10123597 1012144 305992 580505 35712.810376464985 67641.564513742501 32768 0 8 31434 58340
0	11135741 1434320 465276 609512 54237.062427891918 70936.69272680307 32768 4.6726201e-005 2.663830571889 8259.760432544 4199.6879301525
2	12570061 1012104 423568 620170 49372.672624198485 72238.36436520448 32768 0 0 0 0
3	13582165 1434436 423570 620172 49372.672624198485 72238.36436520448 32768 4.129447e-005 5.949540363735 11889.810285712 9021.1474006064
0	15016601 1434465 609514 755066 70936.833161294848 88070.929208812583 32768 2.214811e-006 2.7809909839 8127.4413943228 4030.6258209958
2	16451066 1012062 620176 816780 72239.76031866493 95303.908787376388 32768 0 0 0 0
3	17463128 1434426 620178 816782 72239.76031866493 95303.908787376388 32768 2.214811e-006 6.132148147753 11788.910913394 8787.1023427555
1	18897554 1012153 580630 856925 67664.399870428268 99922.856960537627 32768 0 9 30954 56908
0	19909707 1018638 755072 857696 88072.046886315952 99999.296200433735 23269 1.9265965e-005 3.052379212257 5899.6439159103 3036.2939151268
1	20928345 4012 856948 857687 99926.076623632198 99999.232248671841 130 0 4 143 277
2	20932357 210644 816790 857698 95304.134129104727 99999.587876222213 6820 0 0 0 0
3	21143001 298589 816792 857700 95304.134129104727 99999.587876222213 6820 1.9265965e-005 5.098236278176 2557.0693688175 2058.599214942

