file 21482572 1595946490                                        
version 2
run exponential-7-20200728-16:28:05-360
attr configname exponential
attr datetime 20200728-16:28:05
attr experiment exponential
attr inifile consegna.ini
attr iterationvars "$lamb=0.7, $expo=0.25"
attr iterationvarsf lamb=0.7,expo=0.25-
attr measurement "$lamb=0.7, $expo=0.25"
attr network Network
attr processid 360
attr repetition 7
attr replication #7
attr resultdir results
attr runnumber 7
attr seedset 7
itervar expo 0.25
itervar lamb 0.7
param **.source.interArrivalTime exponential(0.7s)
param **.queue.serviceTime 0s
param **.SPTF.serviceTime exponential(0.25s)

vector 0 Network.SPTF serviceTime:vector ETV
vector 1 Network.queue serviceTime:vector ETV
vector 2 Network.sink lifeTime:vector ETV
attr interpolationmode none
attr title "lifetime of arrived jobs, vector"
attr unit s
vector 3 Network.SPTF queueLength:vector ETV
attr interpolationmode sample-hold
attr title "queue length, vector"
0	947 1405752 29348 174431 3501.097330186916 20383.63589408957 32768 7.1549e-007 2.514139463106 8102.7832534785 3996.0016871137
1	1406699 991035 29350 225954 3501.14249326773 26444.685197597662 32768 0 0 0 0
2	2397734 1413389 29352 225956 3501.14249326773 26444.685197597662 32768 7.1549e-007 5.462760443457 11732.475978159 8702.4860497213
3	3811123 997085 29368 306978 3505.265885911005 35937.887712185053 32768 0 8 30662 55460
0	4808208 1434550 174440 319378 20384.516125212209 37318.136386062142 32768 1.894201e-006 3.000789362222 8241.3781280125 4151.9301732207
1	6242758 1012217 225958 422560 26444.686633126829 49345.199572025242 32768 0 0 0 0
2	7254975 1434574 225960 422562 26444.686633126829 49345.199572025242 32768 9.893635e-006 4.163941648628 11918.483538255 8809.9928168846
0	8689549 1434447 319379 463951 37318.616509294474 54225.571460043897 32768 1.6007e-008 2.645980304985 8167.5363527867 4092.6424825898
3	10123996 1012065 306979 576797 35937.997527745756 67371.602018080654 32768 0 8 31596 58688
0	11136061 1434367 463956 607934 54225.641428193084 71019.63392407495 32768 2.561e-009 2.379262726492 8235.4144061366 4153.0194691008
1	12570428 1012177 422566 619168 49345.821002824768 72356.104997673042 32768 0 0 0 0
2	13582605 1434432 422568 619170 49345.821002824768 72356.104997673042 32768 1.6783345e-005 5.906276044801 11982.682110303 9141.8779285898
0	15017037 1434474 607936 752078 71019.800384371105 87809.74840634618 32768 4.055652e-006 2.670219921065 8308.3571178125 4205.7285054487
1	16451511 1012105 619174 815776 72356.351472615491 95260.778640161607 32768 0 0 0 0
2	17463616 1434413 619176 815778 72356.351472615491 95260.778640161607 32768 4.055652e-006 6.557654367613 11990.812934948 9099.4149101665
3	18898029 1012277 576826 849885 67376.373007441521 99238.222913654473 32768 0 7 31160 57036
0	19910306 1035243 752084 856856 87811.095113286995 99999.5023526549 23648 3.8359579e-005 3.130652846411 5902.5369320278 2939.6154451291
1	20945549 211499 815782 856858 95261.800828594042 99999.803927530518 6847 0 0 0 0
2	21157048 299767 815784 856860 95261.800828594042 99999.803927530518 6847 6.9682534e-005 5.553636337321 2477.8072487567 1859.7874562022
3	21456815 25755 849890 856841 99238.284223770203 99997.524941688456 834 0 5 759 1317

