file 21504354 1595946485                                        
version 2
run exponential-14-20200728-16:28:00-4596
attr configname exponential
attr datetime 20200728-16:28:00
attr experiment exponential
attr inifile consegna.ini
attr iterationvars "$lamb=0.7, $expo=0.25"
attr iterationvarsf lamb=0.7,expo=0.25-
attr measurement "$lamb=0.7, $expo=0.25"
attr network Network
attr processid 4596
attr repetition 14
attr replication #14
attr resultdir results
attr runnumber 14
attr seedset 14
itervar expo 0.25
itervar lamb 0.7
param **.source.interArrivalTime exponential(0.7s)
param **.queue.serviceTime 0s
param **.SPTF.serviceTime exponential(0.25s)

vector 0 Network.queue serviceTime:vector ETV
vector 1 Network.sink lifeTime:vector ETV
attr interpolationmode none
attr title "lifetime of arrived jobs, vector"
attr unit s
vector 2 Network.SPTF serviceTime:vector ETV
vector 3 Network.SPTF queueLength:vector ETV
attr interpolationmode sample-hold
attr title "queue length, vector"
2	954 1405759 29618 174596 3500.831363349579 20306.650654513233 32768 4.4087052e-005 2.520937280118 8158.0783210575 4035.6672984401
0	1406713 991101 29614 226216 3500.189494065082 26364.269373199288 32768 0 0 0 0
1	2397814 1413367 29616 226218 3500.189494065082 26364.269373199288 32768 1.8009924e-005 5.789084239016 11782.595183173 8777.5786809866
3	3811181 997208 29662 302537 3508.51318040521 35249.244495203797 32768 0 10 31300 58260
2	4808389 1434579 174602 318870 20307.829127593777 37171.382434050931 32768 1.08208e-007 2.682157083458 8253.4321142089 4219.3947203578
0	6242968 1012065 226222 422826 26365.850297926708 49368.958134895679 32768 0 0 0 0
1	7255033 1434314 226224 422828 26365.850297926708 49368.958134895679 32768 1.08208e-007 5.882654951377 11904.035342747 8922.5995751948
2	8689347 1434567 318871 463826 37171.415659763706 54063.245475570678 32768 5.236707e-006 2.886592475661 8134.1147935239 4045.5088558969
3	10123914 1012168 302566 577235 35253.993231153536 67249.422700705215 32768 0 8 30722 55468
2	11136082 1434458 463832 607904 54063.946446681392 70788.678397564245 32768 2.924777e-006 2.796375071855 8290.3963040757 4242.1074935301
0	12570540 1012123 422830 619434 49369.219492592227 72083.757044409085 32768 0 0 0 0
1	13582663 1434475 422832 619436 49369.219492592227 72083.757044409085 32768 2.924777e-006 5.974854833993 12048.3366999 9281.6684165314
2	15017138 1434553 607910 752764 70789.918668070728 87660.090843811796 32768 4.970343e-006 2.505240958344 8187.9219299988 4073.1315222796
0	16451691 1012242 619438 816040 72083.888954135697 95101.276068184876 32768 0 0 0 0
1	17463933 1434672 619440 816042 72083.888954135697 95101.276068184876 32768 1.6516795e-005 6.647811659691 11673.984978 8438.9427568303
3	18898605 1012117 577246 851945 67250.072046133701 99224.964376626697 32768 0 8 30920 56692
0	19910722 218252 816046 858436 95102.102906953449 99999.797739915058 7066 0 0 0 0
1	20128974 309314 816048 858438 95102.102906953449 99999.797739915058 7066 8.081042e-006 5.107527098024 2556.5102559585 1945.9309659132
2	20438288 1042900 752765 858431 87660.305229095572 99999.741491082983 23824 7.360816e-006 2.40870156415 5867.7765279671 2913.3293792171
3	21481188 23164 851986 858431 99228.38988920025 99999.741491082983 750 0 4 719 1247

