file 21423127 1595946490                                        
version 2
run exponential-3-20200728-16:28:05-12868
attr configname exponential
attr datetime 20200728-16:28:05
attr experiment exponential
attr inifile consegna.ini
attr iterationvars "$lamb=0.7, $expo=0.25"
attr iterationvarsf lamb=0.7,expo=0.25-
attr measurement "$lamb=0.7, $expo=0.25"
attr network Network
attr processid 12868
attr repetition 3
attr replication #3
attr resultdir results
attr runnumber 3
attr seedset 3
itervar expo 0.25
itervar lamb 0.7
param **.source.interArrivalTime exponential(0.7s)
param **.queue.serviceTime 0s
param **.SPTF.serviceTime exponential(0.25s)

vector 0 Network.SPTF queueLength:vector ETV
attr interpolationmode sample-hold
attr title "queue length, vector"
vector 1 Network.SPTF serviceTime:vector ETV
vector 2 Network.queue serviceTime:vector ETV
vector 3 Network.sink lifeTime:vector ETV
attr interpolationmode none
attr title "lifetime of arrived jobs, vector"
attr unit s
1	951 1406354 30095 174910 3500.077351452412 20382.938718814674 32768 1.1126758e-005 3.514658850639 8227.5862728494 4193.5589567139
2	1407305 991213 30096 226696 3500.077351452412 26469.189920542508 32768 0 0 0 0
3	2398518 1413596 30098 226698 3500.077351452412 26469.189920542508 32768 9.394369e-006 5.492112071248 11943.693996284 9111.3294256711
0	3812114 997491 30095 305722 3500.077351452412 35689.654713719566 32768 0 9 31056 57292
1	4809605 1434353 174911 319822 20383.098008105751 37333.546191186131 32768 9.394369e-006 2.425191561703 8208.5665958774 4087.3632950087
2	6243958 1012183 226702 423306 26470.769064552276 49508.595371615918 32768 0 0 0 0
3	7256141 1434513 226704 423308 26470.769064552276 49508.595371615918 32768 2.0966114e-005 6.684602903858 11881.926657483 8821.6172791255
1	8690654 1434544 319823 464349 37333.758690139629 54287.194092590716 32768 1.7279541e-005 2.780762273652 8255.1937140898 4127.9835757205
0	10125198 1012158 305724 576674 35689.998033732494 67455.079506375565 32768 0 7 31360 57684
1	11137356 1434471 464353 608676 54287.437705079732 71259.552161013313 32768 3.976313e-006 2.647942040631 8223.4693256625 4125.1650069211
2	12571827 1012173 423310 619912 49508.897820644033 72598.158716080908 32768 0 0 0 0
3	13584000 1434507 423312 619914 49508.897820644033 72598.158716080908 32768 3.976313e-006 6.047531811539 11961.051820492 8982.5170100851
1	15018507 1434497 608678 753476 71260.189512109902 88125.811146804151 32768 6.262582e-006 2.20333098687 8123.5798504471 4053.44151183
2	16453004 1012223 619918 816520 72598.950371635879 95584.697686660856 32768 0 0 0 0
3	17465227 1434349 619920 816522 72598.950371635879 95584.697686660856 32768 6.262582e-006 6.526425618602 11811.607943623 8907.4909121378
0	18899576 1012143 576675 852001 67455.608573648513 99589.404896187896 32768 0 9 31142 57248
0	19911719 14486 852005 855473 99589.453932796975 99996.639457740854 469 0 4 460 814
1	19926205 1011845 753478 855506 88126.009012319766 99999.875079824312 23115 3.1247185e-005 2.573359605975 5792.0049378988 2952.6043158472
2	20938050 200683 816528 855502 95585.39967454545 99999.693191058556 6497 0 0 0 0
3	21138733 284392 816530 855504 95585.39967454545 99999.693191058556 6497 4.9504638e-005 6.592138058121 2393.6247325847 1838.7320164816

