file 21393716 1595946490                                        
version 2
run exponential-11-20200728-16:28:05-16048
attr configname exponential
attr datetime 20200728-16:28:05
attr experiment exponential
attr inifile consegna.ini
attr iterationvars "$lamb=0.7, $expo=0.25"
attr iterationvarsf lamb=0.7,expo=0.25-
attr measurement "$lamb=0.7, $expo=0.25"
attr network Network
attr processid 16048
attr repetition 11
attr replication #11
attr resultdir results
attr runnumber 11
attr seedset 11
itervar expo 0.25
itervar lamb 0.7
param **.source.interArrivalTime exponential(0.7s)
param **.queue.serviceTime 0s
param **.SPTF.serviceTime exponential(0.25s)

vector 0 Network.SPTF serviceTime:vector ETV
vector 1 Network.SPTF queueLength:vector ETV
attr interpolationmode sample-hold
attr title "queue length, vector"
vector 2 Network.queue serviceTime:vector ETV
vector 3 Network.sink lifeTime:vector ETV
attr interpolationmode none
attr title "lifetime of arrived jobs, vector"
attr unit s
0	956 1406233 29948 174953 3501.157621128991 20405.035270026038 32768 5.765302e-006 3.08720641106 8170.6928271747 4071.0514660066
2	1407189 991172 29952 226552 3501.440740273142 26372.889459516488 32768 0 0 0 0
3	2398361 1413497 29954 226554 3501.440740273142 26372.889459516488 32768 5.765302e-006 5.494730719479 11935.553915385 9035.0298727044
1	3811858 997551 29950 305514 3501.206251083158 35616.408524308081 32768 0 8 31472 57924
0	4809409 1434383 174962 319721 20405.084733914729 37253.941227133054 32768 5.301494e-006 2.855053628918 8259.3962341469 4180.6487473449
2	6243792 1012188 226558 423162 26373.116140513312 49190.320921089119 32768 0 0 0 0
3	7255980 1434637 226560 423164 26373.116140513312 49190.320921089119 32768 1.8252784e-005 6.587423430513 12054.487326691 9304.294917963
0	8690617 1434654 319730 463970 37254.575945090293 54021.129250526664 32768 1.552985e-006 3.049752991211 8178.6733731977 4097.6716879155
1	10125271 1012218 305515 581850 35616.550970185293 67883.480140969996 32768 0 8 31068 56760
0	11137489 1434542 463976 609671 54021.985851049037 71079.287703800364 32768 1.022683e-005 2.5779789235 8194.2899552201 4120.0825393316
2	12572031 1012098 423166 619770 49190.574120457702 72224.997227472828 32768 0 0 0 0
3	13584129 1434350 423168 619772 49190.574120457702 72224.997227472828 32768 1.022683e-005 6.151603296113 11743.286919362 8780.6595297447
0	15018479 1434318 609680 754607 71079.800560143319 88072.465958934217 32768 1.7495507e-005 2.500786159359 8158.6898017215 4032.7423436425
2	16452797 1012108 619776 816376 72225.49163139466 95379.567085338857 32768 0 0 0 0
3	17464905 1434439 619778 816378 72225.49163139466 95379.567085338857 32768 4.974185e-006 5.719822854034 11752.513714204 8788.588469408
0	18899344 999142 754612 856001 88072.674956841 99998.96350879188 22825 4.974185e-006 2.269159672237 5658.3981619862 2839.7077370623
1	19898486 1002032 581851 856001 67883.487145429371 99998.96350879188 32440 0 8 30734 56532
2	20900518 204021 816382 856006 95380.569723042934 99999.127221199231 6605 0 0 0 0
3	21104539 289175 816384 856008 95380.569723042934 99999.127221199231 6605 7.2576453e-005 3.462746338107 2355.0844632821 1697.6275132219

