file 21426011 1595946474                                        
version 2
run exponential-0-20200728-16:27:49-12868
attr configname exponential
attr datetime 20200728-16:27:49
attr experiment exponential
attr inifile consegna.ini
attr iterationvars "$lamb=0.7, $expo=0.25"
attr iterationvarsf lamb=0.7,expo=0.25-
attr measurement "$lamb=0.7, $expo=0.25"
attr network Network
attr processid 12868
attr repetition 0
attr replication #0
attr resultdir results
attr runnumber 0
attr seedset 0
itervar expo 0.25
itervar lamb 0.7
param **.source.interArrivalTime exponential(0.7s)
param **.queue.serviceTime 0s
param **.SPTF.serviceTime exponential(0.25s)

vector 0 Network.SPTF serviceTime:vector ETV
vector 1 Network.SPTF queueLength:vector ETV
attr interpolationmode sample-hold
attr title "queue length, vector"
vector 2 Network.queue serviceTime:vector ETV
vector 3 Network.sink lifeTime:vector ETV
attr interpolationmode none
attr title "lifetime of arrived jobs, vector"
attr unit s
0	951 1405991 29684 174788 3502.421310019361 20352.92295944346 32768 3.7596652e-005 2.680581244902 8170.0540900629 4119.6170011708
2	1406942 991079 29688 226288 3503.640606610317 26223.103822955504 32768 0 0 0 0
3	2398021 1413424 29690 226290 3503.640606610317 26223.103822955504 32768 3.7596652e-005 7.539184165425 11702.578366009 8714.6462233559
1	3811445 997133 29686 304337 3502.422313247255 35291.276664358774 32768 0 8 30904 56540
0	4808578 1434402 174790 319597 20353.058840437648 37149.532344772602 32768 5.0028553e-005 2.589175786767 8139.2807441389 4027.7234034395
2	6242980 1012106 226294 422898 26223.34433559751 49109.410573620847 32768 0 0 0 0
3	7255086 1434532 226296 422900 26223.34433559751 49109.410573620847 32768 2.2713254e-005 6.306295231109 11758.158460965 8684.2635296447
0	8689618 1434453 319601 464564 37149.534773848344 53983.709070410398 32768 1.5839039e-005 2.52715215546 8221.7363475839 4136.9227013346
1	10124071 1012049 304342 582000 35291.281098759688 67698.996951433 32768 0 8 30532 55340
0	11136120 1434486 464570 609533 53985.67358913098 70976.318871078054 32768 8.28471e-007 2.528900449436 8289.7004821273 4189.4455287321
2	12570606 1012188 422904 619504 49109.835212416799 72110.722275034857 32768 0 0 0 0
3	13582794 1434518 422906 619506 49109.835212416799 72110.722275034857 32768 1.1936406e-005 5.644694406855 11866.799425382 8726.0352562577
0	15017312 1434422 609542 753770 70976.940263933505 87675.479468420245 32768 7.303713e-006 2.832629671775 8257.3859160651 4147.4511555474
2	16451734 1012169 619510 816112 72111.15692723295 95086.996659264969 32768 0 0 0 0
3	17463903 1434552 619512 816114 72111.15692723295 95086.996659264969 32768 4.973894e-006 5.804033573839 11976.803306235 9081.165073615
0	18898455 1011883 753776 856994 87676.277183762365 99999.216913673809 23113 4.973894e-006 2.644613905751 5788.4449314317 2889.3221904566
1	19910338 1006916 582001 856979 67699.462255648996 99996.956410591417 32598 0 9 30905 57143
2	20917254 210474 816118 856996 95087.312470147979 99999.246609731436 6814 0 0 0 0
3	21127728 298281 816120 856998 95087.312470147979 99999.246609731436 6814 1.5720754e-005 7.992263940757 2445.2316703431 1875.7463871158

