file 21561037 1595946474                                        
version 2
run exponential-12-20200728-16:27:49-4596
attr configname exponential
attr datetime 20200728-16:27:49
attr experiment exponential
attr inifile consegna.ini
attr iterationvars "$lamb=0.7, $expo=0.25"
attr iterationvarsf lamb=0.7,expo=0.25-
attr measurement "$lamb=0.7, $expo=0.25"
attr network Network
attr processid 4596
attr repetition 12
attr replication #12
attr resultdir results
attr runnumber 12
attr seedset 12
itervar expo 0.25
itervar lamb 0.7
param **.source.interArrivalTime exponential(0.7s)
param **.queue.serviceTime 0s
param **.SPTF.serviceTime exponential(0.25s)

vector 0 Network.queue serviceTime:vector ETV
vector 1 Network.sink lifeTime:vector ETV
attr interpolationmode none
attr title "lifetime of arrived jobs, vector"
attr unit s
vector 2 Network.SPTF serviceTime:vector ETV
vector 3 Network.SPTF queueLength:vector ETV
attr interpolationmode sample-hold
attr title "queue length, vector"
2	954 1406308 30068 174953 3500.982157112294 20429.923395614945 32768 8.829152e-006 2.54175528658 8187.0002641234 4047.272150634
0	1407262 991381 30064 226666 3500.064437281537 26399.126205586541 32768 0 0 0 0
1	2398643 1413729 30066 226668 3500.064437281537 26399.126205586541 32768 8.829152e-006 5.600807250498 11964.200797759 9224.1391353309
3	3812372 997430 30076 305243 3501.704836216787 35558.11747781 32768 0 6 31230 56912
2	4809802 1434548 174958 319880 20430.254874964726 37292.645371255603 32768 2.501603e-006 2.598679000816 8096.0451166944 3974.2366915697
0	6244350 1012147 226674 423276 26400.204092468867 49231.411607441189 32768 0 0 0 0
1	7256497 1434549 226676 423278 26400.204092468867 49231.411607441189 32768 6.613875e-006 6.263891760241 11691.638360102 8602.4959104529
2	8691046 1434611 319886 464459 37293.11865740612 54067.129788258815 32768 8.654174e-006 2.189537490107 8224.8095809933 4120.0182488218
3	10125657 1012062 305272 577656 35561.724901222105 67187.129703526567 32768 0 8 31306 58488
2	11137719 1434506 464464 608376 54067.453094800635 70717.935024619355 32768 1.569575e-006 2.546799840961 8209.1522397457 4179.5052511021
0	12572225 1012107 423280 619882 49231.454722257049 72047.862973862586 32768 0 0 0 0
1	13584332 1434497 423282 619884 49231.454722257049 72047.862973862586 32768 1.569575e-006 9.149993545431 11944.073197922 9188.3308271104
2	15018829 1434540 608377 752439 70717.982623037851 87349.354596878927 32768 1.6052558e-005 2.403497895438 8162.1663309968 4019.8633887263
0	16453369 1012167 619888 816490 72051.732222087104 94936.753628528069 32768 0 0 0 0
1	17465536 1434492 619890 816492 72051.732222087104 94936.753628528069 32768 2.0056487e-005 6.485411309199 11886.523462478 8755.6093404875
3	18900028 1012156 577658 849407 67187.132083079457 98711.126343002158 32768 0 8 30786 55304
0	19912184 225371 816498 860272 94937.874673258691 99997.893594189396 7297 0 0 0 0
1	20137555 319450 816500 860274 94937.874673258691 99997.893594189396 7297 1.376748e-005 3.623591901882 2574.1799631459 1823.3609951445
2	20457005 1064620 752443 860276 87349.36207295152 99999.660640741585 24319 1.376748e-005 2.588603141041 6094.5071925856 3035.7930024814
3	21521625 39410 849424 860267 98713.880729768866 99997.880511656386 1276 0 5 1118 1878

