file 21419017 1595946480                                        
version 2
run exponential-5-20200728-16:27:54-360
attr configname exponential
attr datetime 20200728-16:27:54
attr experiment exponential
attr inifile consegna.ini
attr iterationvars "$lamb=0.7, $expo=0.25"
attr iterationvarsf lamb=0.7,expo=0.25-
attr measurement "$lamb=0.7, $expo=0.25"
attr network Network
attr processid 360
attr repetition 5
attr replication #5
attr resultdir results
attr runnumber 5
attr seedset 5
itervar expo 0.25
itervar lamb 0.7
param **.source.interArrivalTime exponential(0.7s)
param **.queue.serviceTime 0s
param **.SPTF.serviceTime exponential(0.25s)

vector 0 Network.SPTF serviceTime:vector ETV
vector 1 Network.queue serviceTime:vector ETV
vector 2 Network.sink lifeTime:vector ETV
attr interpolationmode none
attr title "lifetime of arrived jobs, vector"
attr unit s
vector 3 Network.SPTF queueLength:vector ETV
attr interpolationmode sample-hold
attr title "queue length, vector"
0	947 1406068 29798 174284 3500.336467177474 20487.656340707901 32768 2.8832674e-005 2.613913294075 8265.5469494603 4169.670891373
1	1407015 991261 29800 226402 3500.952735681379 26517.320058119884 32768 0 0 0 0
2	2398276 1413663 29802 226404 3500.952735681379 26517.320058119884 32768 3.6705011e-005 6.712972337549 12023.860401167 9029.3296890984
3	3811939 996838 29806 302675 3501.414929805501 35393.554139245565 32768 0 7 31296 57872
0	4808777 1434532 174290 318932 20488.109069694965 37284.313147113961 32768 7.06817e-007 3.057453491997 8136.4733626062 4011.0933620569
1	6243309 1012267 226410 423010 26517.849663185259 49302.984836971432 32768 0 0 0 0
2	7255576 1434696 226412 423012 26517.849663185259 49302.984836971432 32768 9.42151e-007 5.815250846129 11890.758504358 8929.4178374215
0	8690272 1434543 318934 463618 37284.67577259353 54032.220357316318 32768 1.908869e-006 2.929873482982 8231.3125090861 4131.2172941176
3	10124815 1012210 302698 575543 35396.200423834956 67077.275928601923 32768 0 9 31408 58312
0	11137025 1434556 463619 608012 54032.484734416216 70860.217454561213 32768 3.00526e-007 2.883119824045 8159.5745923596 4073.2553410491
1	12571581 1012098 423016 619624 49303.767760313207 72301.624807757257 32768 0 0 0 0
2	13583679 1434324 423018 619626 49303.767760313207 72301.624807757257 32768 3.793597e-006 5.144577335189 11867.776773164 8771.7884330292
0	15018003 1434568 608014 753193 70860.230078679822 88016.954037603569 32768 1.4842463e-005 2.548383366479 8313.2611707691 4271.1024633081
1	16452571 1012128 619628 816226 72301.784459258153 95399.977417263167 32768 0 0 0 0
2	17464699 1434444 619630 816228 72301.784459258153 95399.977417263167 32768 8.830083e-006 5.879902821579 11910.552949818 9065.1898239751
3	18899143 1012110 575554 853175 67077.778316591026 99716.68375898197 32768 0 9 31016 57016
0	19911253 1010096 753197 855536 88016.960536624968 99999.739687168874 23072 8.830083e-006 2.619940591904 5787.9080176721 2894.4683095901
1	20921349 202413 816232 855538 95400.505068362655 99999.794553314612 6552 0 0 0 0
2	21123762 286858 816234 855540 95400.505068362655 99999.794553314612 6552 0.000137252102 6.16954266463 2418.9642092565 1851.358295315
3	21410620 8395 853222 855527 99726.593984465106 99999.316027010826 272 0 4 236 380

