file 21479118 1595946496                                        
version 2
run exponential-17-20200728-16:28:13-3496
attr configname exponential
attr datetime 20200728-16:28:13
attr experiment exponential
attr inifile consegna.ini
attr iterationvars "$lamb=0.7, $expo=0.25"
attr iterationvarsf lamb=0.7,expo=0.25-
attr measurement "$lamb=0.7, $expo=0.25"
attr network Network
attr processid 3496
attr repetition 17
attr replication #17
attr resultdir results
attr runnumber 17
attr seedset 17
itervar expo 0.25
itervar lamb 0.7
param **.source.interArrivalTime exponential(0.7s)
param **.queue.serviceTime 0s
param **.SPTF.serviceTime exponential(0.25s)

vector 0 Network.queue serviceTime:vector ETV
vector 1 Network.sink lifeTime:vector ETV
attr interpolationmode none
attr title "lifetime of arrived jobs, vector"
attr unit s
vector 2 Network.SPTF serviceTime:vector ETV
vector 3 Network.SPTF queueLength:vector ETV
attr interpolationmode sample-hold
attr title "queue length, vector"
2	954 1405996 29924 174270 3501.703562441258 20181.192413004901 32768 9.186211e-006 2.512426391409 8094.9995530342 4058.9208423014
0	1406950 991041 29920 226526 3500.11981957002 26199.579311499707 32768 0 0 0 0
1	2397991 1413409 29922 226528 3500.11981957002 26199.579311499707 32768 9.186211e-006 6.369936320538 11867.201962904 9045.6169441436
3	3811400 997133 29974 303101 3510.014511864212 35250.214162574805 32768 0 7 31506 58288
2	4808533 1434673 174271 319260 20181.388944011564 37141.410269901408 32768 2.0028312e-005 2.742953148251 8275.5299697136 4191.4278209166
0	6243206 1012304 226530 423130 26199.890921064015 49244.918208132602 32768 0 0 0 0
1	7255510 1434689 226532 423132 26199.890921064015 49244.918208132602 32768 5.880847e-006 8.772366428244 11853.132955751 9067.4461149113
2	8690199 1434613 319261 464444 37141.621395759727 54018.498951519297 32768 1.168929e-006 2.477642258596 8164.3180667304 4053.344086226
3	10124812 1012174 303154 579911 35259.787673531136 67511.482603684812 32768 0 6 30716 55564
2	11136986 1434392 464446 609170 54018.819736781059 70956.863090069906 32768 5.699177e-006 2.668196701143 8238.3497766683 4171.0861286498
0	12571378 1012116 423140 619738 49245.729099787598 72223.365692859398 32768 0 0 0 0
1	13583494 1434392 423142 619740 49245.729099787598 72223.365692859398 32768 5.699177e-006 5.489509867671 11872.325050059 8858.9082896327
2	15017886 1434550 609172 754445 70957.101940411782 87965.279557699987 32768 5.096074e-006 2.338486264986 8251.777388416 4123.7042101966
0	16452436 1012202 619744 816348 72223.753591001558 95134.030573421859 32768 0 0 0 0
1	17464638 1434633 619746 816350 72223.753591001558 95134.030573421859 32768 5.096074e-006 6.185786453601 11771.462377948 8694.262158918
3	18899271 1012206 579916 856883 67511.545149591898 99774.677065262137 32768 0 7 30704 55540
0	19911477 218417 816352 858772 95134.228158133874 99999.200163981566 7071 0 0 0 0
1	20129894 309609 816354 858774 95134.228158133874 99999.200163981566 7071 0.000196228543 3.721901064052 2481.9692891107 1719.0001995456
2	20439503 1032139 754454 858767 87965.458254767152 99998.779080503726 23575 1.3223675e-005 2.613781889089 5839.0628293252 2871.293170546
3	21471642 7474 856900 858767 99775.840398838259 99998.779080503726 242 0 4 207 349

