file 21481363 1595946493                                        
version 2
run exponential-16-20200728-16:28:10-3496
attr configname exponential
attr datetime 20200728-16:28:10
attr experiment exponential
attr inifile consegna.ini
attr iterationvars "$lamb=0.7, $expo=0.25"
attr iterationvarsf lamb=0.7,expo=0.25-
attr measurement "$lamb=0.7, $expo=0.25"
attr network Network
attr processid 3496
attr repetition 16
attr replication #16
attr resultdir results
attr runnumber 16
attr seedset 16
itervar expo 0.25
itervar lamb 0.7
param **.source.interArrivalTime exponential(0.7s)
param **.queue.serviceTime 0s
param **.SPTF.serviceTime exponential(0.25s)

vector 0 Network.SPTF serviceTime:vector ETV
vector 1 Network.queue serviceTime:vector ETV
vector 2 Network.sink lifeTime:vector ETV
attr interpolationmode none
attr title "lifetime of arrived jobs, vector"
attr unit s
vector 3 Network.SPTF queueLength:vector ETV
attr interpolationmode sample-hold
attr title "queue length, vector"
0	954 1406072 29336 174098 3500.559345596438 20447.377670021782 32768 2.815209e-005 2.55501775695 8199.8322854408 4076.3270389051
1	1407026 991301 29338 225940 3500.565681999218 26470.675689735872 32768 0 0 0 0
2	2398327 1413607 29340 225942 3500.565681999218 26470.675689735872 32768 1.4594484e-005 5.094248758347 11706.068903574 8539.8372396935
3	3811934 997153 29350 307307 3502.774589635909 36135.774797021861 32768 0 8 30782 55512
0	4809087 1434352 174100 319926 20447.512345778719 37641.895132691454 32768 5.923398e-006 2.431895440257 8094.807664157 3958.3029904829
1	6243439 1012098 225946 422548 26472.919903178462 49404.304199683698 32768 0 0 0 0
2	7255537 1434373 225948 422550 26472.919903178462 49404.304199683698 32768 5.923398e-006 7.997347442196 11749.2701117 8768.4163039616
0	8689910 1434474 319927 464657 37642.451794535312 54340.2450992593 32768 3.165527e-006 3.190696573186 8149.2354518837 4021.0473787554
3	10124384 1012048 307312 581543 36135.905735926702 68048.35853328626 32768 0 7 31452 58300
0	11136432 1434386 464666 609002 54342.356250567029 71216.601816202137 32768 5.021858e-006 2.539656519626 8297.6468114862 4222.4695405088
1	12570818 1012151 422554 619164 49404.793685177614 72409.795475670467 32768 0 0 0 0
2	13582969 1434555 422556 619166 49404.793685177614 72409.795475670467 32768 3.165527e-006 7.524404102788 11969.336688948 9139.3196937221
0	15017524 1434462 609008 753344 71217.653176722302 87924.24376435299 32768 4.548155e-006 2.494060855445 8139.3994716478 4002.3902677054
1	16451986 1012227 619168 815768 72409.836706546661 95168.028073086616 32768 0 0 0 0
2	17464213 1434550 619170 815770 72409.836706546661 95168.028073086616 32768 4.548155e-006 6.104974131339 11759.747697795 8573.0186968075
3	18898763 1012184 581548 853013 68048.5921538132 99490.090371525967 32768 0 7 31076 56724
0	19910947 1033908 753350 857564 87924.702094205188 99999.212965370226 23616 9.467655e-006 2.45637654329 5915.5628570763 2976.5269711391
1	20944855 215179 815772 857566 95168.095375859 99999.493348445054 6967 0 0 0 0
2	21160034 304949 815774 857568 95168.095375859 99999.493348445054 6967 0.000134153424 4.193492713394 2599.091673175 2012.7519492088
3	21464983 16378 853024 857519 99490.758306555423 99995.594549858034 530 0 4 445 709

