file 21405162 1595946485                                        
version 2
run exponential-10-20200728-16:28:00-16048
attr configname exponential
attr datetime 20200728-16:28:00
attr experiment exponential
attr inifile consegna.ini
attr iterationvars "$lamb=0.7, $expo=0.25"
attr iterationvarsf lamb=0.7,expo=0.25-
attr measurement "$lamb=0.7, $expo=0.25"
attr network Network
attr processid 16048
attr repetition 10
attr replication #10
attr resultdir results
attr runnumber 10
attr seedset 10
itervar expo 0.25
itervar lamb 0.7
param **.source.interArrivalTime exponential(0.7s)
param **.queue.serviceTime 0s
param **.SPTF.serviceTime exponential(0.25s)

vector 0 Network.SPTF serviceTime:vector ETV
vector 1 Network.queue serviceTime:vector ETV
vector 2 Network.sink lifeTime:vector ETV
attr interpolationmode none
attr title "lifetime of arrived jobs, vector"
attr unit s
vector 3 Network.SPTF queueLength:vector ETV
attr interpolationmode sample-hold
attr title "queue length, vector"
0	956 1406211 30344 175270 3501.341317418952 20444.703532137324 32768 1.7208174e-005 2.433517563163 8217.3732377208 4144.9376875045
1	1407167 991106 30346 226948 3501.428935705489 26425.258018283389 32768 0 0 0 0
2	2398273 1413438 30348 226950 3501.428935705489 26425.258018283389 32768 4.39177e-007 5.091431310936 11863.978027731 8841.9481132139
3	3811711 997291 30358 305273 3503.937357932091 35597.020892306444 32768 0 7 30850 56332
0	4809002 1434433 175271 319912 20444.870427928787 37258.678601479676 32768 4.39177e-007 2.620071129931 8141.6745288945 4051.4486354474
1	6243435 1012151 226954 423556 26427.087580562063 49512.525425150914 32768 0 0 0 0
2	7255586 1434519 226956 423558 26427.087580562063 49512.525425150914 32768 1.052804e-006 6.102670964576 11656.002851337 8568.6443551968
0	8690105 1434782 319913 465506 37258.827588387028 54457.984418708388 32768 1.052804e-006 2.282204555563 8121.3507911262 4022.3312722769
3	10124887 1012137 305278 583889 35597.102262887329 68183.424036873128 32768 0 8 31326 58188
0	11137024 1434370 465512 610466 54458.315813770244 71315.238367681635 32768 2.4649016e-005 3.016355693942 8235.288194473 4165.3238173641
1	12571394 1012122 423562 620166 49512.867926856543 72477.23285849416 32768 0 0 0 0
2	13583516 1434546 423564 620168 49512.867926856543 72477.23285849416 32768 2.8383143e-005 5.756381170623 11830.637894805 8935.9176719123
0	15018062 1434465 610472 756180 71316.83478306818 88401.693320619796 32768 1.4312742e-005 2.4185470387 8235.5236970629 4140.6287899655
1	16452527 1012061 620170 816772 72477.858707196276 95378.852963096805 32768 0 0 0 0
2	17464588 1434383 620172 816774 72477.858707196276 95378.852963096805 32768 3.0019726e-005 7.680433577589 11856.924390636 8924.298245491
0	18898971 1003816 756181 856870 88402.359553690346 99999.986715060269 22928 1.1436263e-005 2.322590422393 5767.4866774394 2931.3785252415
1	19902787 206373 816780 856866 95381.33206124855 99999.888637545152 6682 0 0 0 0
2	20109160 292512 816782 856868 95381.33206124855 99999.888637545152 6682 1.1436263e-005 4.415974377095 2490.0098205542 1915.6848803275
3	20401672 1003488 583894 856870 68183.567511599638 99999.986715060269 32489 0 8 30597 55817

