file 21376352 1595946480                                        
version 2
run exponential-1-20200728-16:27:54-12868
attr configname exponential
attr datetime 20200728-16:27:54
attr experiment exponential
attr inifile consegna.ini
attr iterationvars "$lamb=0.7, $expo=0.25"
attr iterationvarsf lamb=0.7,expo=0.25-
attr measurement "$lamb=0.7, $expo=0.25"
attr network Network
attr processid 12868
attr repetition 1
attr replication #1
attr resultdir results
attr runnumber 1
attr seedset 1
itervar expo 0.25
itervar lamb 0.7
param **.source.interArrivalTime exponential(0.7s)
param **.queue.serviceTime 0s
param **.SPTF.serviceTime exponential(0.25s)

vector 0 Network.SPTF serviceTime:vector ETV
vector 1 Network.SPTF queueLength:vector ETV
attr interpolationmode sample-hold
attr title "queue length, vector"
vector 2 Network.queue serviceTime:vector ETV
vector 3 Network.sink lifeTime:vector ETV
attr interpolationmode none
attr title "lifetime of arrived jobs, vector"
attr unit s
0	951 1406161 29774 174890 3501.523013378225 20394.204268731207 32768 1.178244e-005 2.302838849744 8189.9222166727 4070.1330887147
2	1407112 991078 29780 226378 3502.143692695947 26396.642291254696 32768 0 0 0 0
3	2398190 1413377 29782 226380 3502.143692695947 26396.642291254696 32768 1.178244e-005 6.780339077435 11671.838427884 8425.1936223522
1	3811567 997511 29776 305903 3501.841154093808 35615.240587728785 32768 0 8 30448 55080
0	4809078 1434591 174896 319800 20394.507339080215 37205.944665405237 32768 2.592059e-006 2.885451524411 8132.6512859417 4038.4847147551
2	6243669 1012136 226386 422986 26397.246208713989 49221.015849549569 32768 0 0 0 0
3	7255805 1434395 226388 422988 26397.246208713989 49221.015849549569 32768 2.592059e-006 6.525726955945 11803.0086958 8731.948238827
0	8690200 1434471 319801 464885 37205.989949243281 54073.006719265226 32768 5.743591e-006 2.560601368151 8157.5359057866 4056.244160394
1	10124671 1012198 305932 583229 35618.568496959277 67867.421510011538 32768 0 7 31026 56784
0	11136869 1434552 464890 609982 54073.017682409773 70973.026610613245 32768 3.734631e-006 2.192951494875 8217.0984577433 4166.7991822467
2	12571421 1012126 422992 619596 49221.933076666946 72166.276543779421 32768 0 0 0 0
3	13583547 1434487 422994 619598 49221.933076666946 72166.276543779421 32768 1.8335969e-005 6.082820644311 11859.830746051 8961.2895653685
0	15018034 1434565 609983 755144 70973.52674183763 88037.829811163842 32768 9.268345e-006 2.565241696609 8279.9974161954 4144.850554983
2	16452599 1012183 619600 816202 72166.300442875213 95312.000152062971 32768 0 0 0 0
3	17464782 1434361 619602 816204 72166.300442875213 95312.000152062971 32768 9.268345e-006 5.554127447082 11766.571366827 8649.4652297086
0	18899143 992042 755150 855944 88038.033115622586 99998.929710890041 22660 3.574674e-006 2.639795265162 5551.874685876 2716.4333315645
1	19891185 990583 583234 855923 67867.715973790474 99996.963425810443 32072 0 7 30018 54600
2	20881768 204598 816210 855946 95314.198663334743 99999.104531632201 6624 0 0 0 0
3	21086366 289984 816212 855948 95314.198663334743 99999.104531632201 6624 4.1192939e-005 5.641796786628 2375.0013495453 1734.4560275376

